[
  {
    "start": "0",
    "end": "30"
  },
  {
    "text": "The following content is\nprovided under a Creative",
    "start": "30",
    "end": "2399"
  },
  {
    "text": "Commons license.",
    "start": "2400",
    "end": "3820"
  },
  {
    "text": "Your support will help MIT Open\nCourseware continue to",
    "start": "3820",
    "end": "6850"
  },
  {
    "text": "offer high-quality educational\nresources for free.",
    "start": "6850",
    "end": "10520"
  },
  {
    "text": "To make a donation or view\nadditional materials from",
    "start": "10520",
    "end": "13390"
  },
  {
    "text": "hundreds of MIT courses, visit\nMIT Open Courseware at",
    "start": "13390",
    "end": "17490"
  },
  {
    "text": "ocw.mit.edu.",
    "start": "17490",
    "end": "18740"
  },
  {
    "start": "18740",
    "end": "21560"
  },
  {
    "text": "Hi I'm Sal.",
    "start": "21560",
    "end": "22310"
  },
  {
    "text": "Today we're going to solve\nproblem number 6 of",
    "start": "22310",
    "end": "24980"
  },
  {
    "text": "exam 1 of fall 2009.",
    "start": "24980",
    "end": "27320"
  },
  {
    "text": "Now before you attempt a\nproblem, there are a lot of",
    "start": "27320",
    "end": "30039"
  },
  {
    "text": "things that you should know,\nthat is background material",
    "start": "30040",
    "end": "33680"
  },
  {
    "text": "that's going to help you\nsolve the problem.",
    "start": "33680",
    "end": "35740"
  },
  {
    "text": "Especially during an exam,\ngiven that this was the",
    "start": "35740",
    "end": "38060"
  },
  {
    "text": "hardest on this exam.",
    "start": "38060",
    "end": "39560"
  },
  {
    "text": "So you should be able to\nfinish this within",
    "start": "39560",
    "end": "41540"
  },
  {
    "text": "15 minutes or so.",
    "start": "41540",
    "end": "43740"
  },
  {
    "text": "So before you start the problem\nyou should know what",
    "start": "43740",
    "end": "47520"
  },
  {
    "text": "the energy is of a charged\nparticle in an electric field,",
    "start": "47520",
    "end": "49800"
  },
  {
    "text": "which is given by\nthis equation.",
    "start": "49800",
    "end": "51829"
  },
  {
    "text": "The conversion from an electron\nvolt to a joule,",
    "start": "51830",
    "end": "55640"
  },
  {
    "text": "which is just a conversion of\nenergy and this should be",
    "start": "55640",
    "end": "58809"
  },
  {
    "text": "given to you on your\ntable of constants.",
    "start": "58810",
    "end": "63350"
  },
  {
    "text": "Also the energy associated with\nan emission spectrum,",
    "start": "63350",
    "end": "66970"
  },
  {
    "text": "which is given by this equation\nwhere k is actually",
    "start": "66970",
    "end": "70610"
  },
  {
    "text": "the ionization energy of\nhydrogen, which is 13.6",
    "start": "70610",
    "end": "73740"
  },
  {
    "text": "electron volts and the z squared\nis the atomic number",
    "start": "73740",
    "end": "78140"
  },
  {
    "text": "of your atom of interest. And\nthen the n f and the n sub i",
    "start": "78140",
    "end": "82320"
  },
  {
    "text": "are your transition states.",
    "start": "82320",
    "end": "84340"
  },
  {
    "text": "The DeBroglie wavelength, which\nis given by lambda, is",
    "start": "84340",
    "end": "87359"
  },
  {
    "text": "equal to a Planck's Constant\ndivided by the momentum.",
    "start": "87360",
    "end": "91370"
  },
  {
    "text": "And always remember that you\nneed to conserve energy.",
    "start": "91370",
    "end": "93430"
  },
  {
    "text": "This is what's going\nto get you the full",
    "start": "93430",
    "end": "95950"
  },
  {
    "text": "points on the problem.",
    "start": "95950",
    "end": "97399"
  },
  {
    "text": "So the problem, it's best to\nsolve if you draw a little",
    "start": "97400",
    "end": "101940"
  },
  {
    "text": "image as you read the problem.",
    "start": "101940",
    "end": "104690"
  },
  {
    "text": "So the problem reads, atoms of\nionized helium gas, He plus,",
    "start": "104690",
    "end": "109170"
  },
  {
    "text": "are struck by electrons in a gas\ndischarge tube operating",
    "start": "109170",
    "end": "112350"
  },
  {
    "text": "with the potential difference\nbetween the",
    "start": "112350",
    "end": "114040"
  },
  {
    "text": "electrodes set at 8.8 volts.",
    "start": "114040",
    "end": "117060"
  },
  {
    "text": "So I'm going to go ahead and\nstart drawing an image.",
    "start": "117060",
    "end": "119579"
  },
  {
    "start": "119580",
    "end": "125910"
  },
  {
    "text": "So let's say I have two plates\nwhere the voltage between",
    "start": "125910",
    "end": "133070"
  },
  {
    "text": "these two is set\nat 8.88 volts.",
    "start": "133070",
    "end": "141930"
  },
  {
    "text": "And what's happening here is\nthat you're accelerating",
    "start": "141930",
    "end": "145689"
  },
  {
    "text": "electrons through here.",
    "start": "145690",
    "end": "146750"
  },
  {
    "text": "So you can imagine that--",
    "start": "146750",
    "end": "149660"
  },
  {
    "text": "say this is positively\ncharges and this",
    "start": "149660",
    "end": "150992"
  },
  {
    "text": "is negatively charged--",
    "start": "150992",
    "end": "152570"
  },
  {
    "text": "that an electron starts from\nyour negative plate and then",
    "start": "152570",
    "end": "155910"
  },
  {
    "text": "it accelerates toward your\npositive plate and you can",
    "start": "155910",
    "end": "159750"
  },
  {
    "text": "imagine your plate having hole\nor something small where your",
    "start": "159750",
    "end": "162940"
  },
  {
    "text": "electron can then exit and then\nbe in free space under",
    "start": "162940",
    "end": "166550"
  },
  {
    "text": "the influence of no potential.",
    "start": "166550",
    "end": "170890"
  },
  {
    "text": "So then these electrons are\nactually being aimed towards",
    "start": "170890",
    "end": "177330"
  },
  {
    "text": "your helium plus ions.",
    "start": "177330",
    "end": "179350"
  },
  {
    "text": "So that's your target.",
    "start": "179350",
    "end": "181580"
  },
  {
    "text": "Now if I continue reading the\nproblem, it says that the",
    "start": "181580",
    "end": "185770"
  },
  {
    "text": "emmision spectrum includes the\nline associated with the",
    "start": "185770",
    "end": "187920"
  },
  {
    "text": "transition from n equals\n3 to n equals 2.",
    "start": "187920",
    "end": "191310"
  },
  {
    "text": "Calculate the minimum value of\nthe DeBroglie wavelength of",
    "start": "191310",
    "end": "193890"
  },
  {
    "text": "scattered electrons that have\ncollided with helium plus and",
    "start": "193890",
    "end": "196480"
  },
  {
    "text": "generated this line in the\nemission spectrum.",
    "start": "196480",
    "end": "199050"
  },
  {
    "text": "So it's an energy conservation\nproblem.",
    "start": "199050",
    "end": "201950"
  },
  {
    "text": "And all this tells you is that,\nyou have an electron",
    "start": "201950",
    "end": "206010"
  },
  {
    "text": "that is being accelerated\nthrough your potential.",
    "start": "206010",
    "end": "208780"
  },
  {
    "text": "The electron is going to strike\na helium plus atom and",
    "start": "208780",
    "end": "212600"
  },
  {
    "text": "upon that you detect an\nemission spectrum.",
    "start": "212600",
    "end": "215960"
  },
  {
    "text": "Well what does that tell you?",
    "start": "215960",
    "end": "216910"
  },
  {
    "text": "That tells you that that\nelectron actually excited an",
    "start": "216910",
    "end": "221360"
  },
  {
    "text": "electron in the atom.",
    "start": "221360",
    "end": "222950"
  },
  {
    "text": "The electron had to transition\nto a higher state to absorb",
    "start": "222950",
    "end": "225709"
  },
  {
    "text": "energy and then decay and in\nthe process of decaying it",
    "start": "225710",
    "end": "229340"
  },
  {
    "text": "emits a photon, which\nis what you detect.",
    "start": "229340",
    "end": "232800"
  },
  {
    "text": "So this information\nis given to you.",
    "start": "232800",
    "end": "234630"
  },
  {
    "text": "But the problem asks to find\nthe value of the DeBroglie",
    "start": "234630",
    "end": "237415"
  },
  {
    "text": "wavelength.",
    "start": "237415",
    "end": "239150"
  },
  {
    "text": "So since this an energy\nconservation problem, and this",
    "start": "239150",
    "end": "243220"
  },
  {
    "text": "is the very first step that\nhappens and I know that my",
    "start": "243220",
    "end": "247510"
  },
  {
    "text": "energy equation for a\ncharged particle is",
    "start": "247510",
    "end": "249530"
  },
  {
    "text": "simply q times the voltage.",
    "start": "249530",
    "end": "253220"
  },
  {
    "text": "So I know that q, which is a\ncertain value of charge, the",
    "start": "253220",
    "end": "259600"
  },
  {
    "text": "product of these two when I'm\nmultiplying by 8.8 volts, this",
    "start": "259600",
    "end": "266400"
  },
  {
    "text": "yields 8.88 electron volts.",
    "start": "266400",
    "end": "269729"
  },
  {
    "text": "So it's a new unit of energy\nwhere we just saw the",
    "start": "269730",
    "end": "272120"
  },
  {
    "text": "conversion.",
    "start": "272120",
    "end": "273139"
  },
  {
    "text": "And the reason why this takes\nthis shape is because one",
    "start": "273140",
    "end": "276255"
  },
  {
    "text": "electron has the charge of 1.6\ntimes 10 to the negative 19",
    "start": "276255",
    "end": "280880"
  },
  {
    "text": "coulombs and that's where the\nconversion from electrical",
    "start": "280880",
    "end": "282835"
  },
  {
    "text": "volts to joules come from.",
    "start": "282835",
    "end": "285100"
  },
  {
    "text": "So I'm going to go ahead and\ncall this e sub i initial.",
    "start": "285100",
    "end": "290260"
  },
  {
    "text": "Because this is our initial\nenergy that we're given.",
    "start": "290260",
    "end": "293740"
  },
  {
    "text": "So we just start with this\nenergy, nothing else.",
    "start": "293740",
    "end": "295569"
  },
  {
    "text": "Nothing else was given\nfrom the problem.",
    "start": "295570",
    "end": "297370"
  },
  {
    "text": "So we want to go ahead\nand conserve this.",
    "start": "297370",
    "end": "299139"
  },
  {
    "text": "So our final state, the\ncombination of whatever we are",
    "start": "299140",
    "end": "303690"
  },
  {
    "text": "solving, should not have a\nhigher energy than what",
    "start": "303690",
    "end": "306500"
  },
  {
    "text": "initially we started with.",
    "start": "306500",
    "end": "308670"
  },
  {
    "text": "So because the problem says\nthat we have an emission",
    "start": "308670",
    "end": "313780"
  },
  {
    "text": "spectrum, I'm going to go ahead\nand draw another image.",
    "start": "313780",
    "end": "319370"
  },
  {
    "text": "I'll label this one,\ninitial and I'll",
    "start": "319370",
    "end": "324560"
  },
  {
    "text": "label this one, final.",
    "start": "324560",
    "end": "326190"
  },
  {
    "start": "326190",
    "end": "329660"
  },
  {
    "text": "So my final image, you can\nimagine a helium plus atom.",
    "start": "329660",
    "end": "337690"
  },
  {
    "text": "And the electron strikes the\nhelium plus atom and we detect",
    "start": "337690",
    "end": "344990"
  },
  {
    "text": "a photon and you're getting\na scattered electron.",
    "start": "344990",
    "end": "351620"
  },
  {
    "text": "That's what the problem says.",
    "start": "351620",
    "end": "354280"
  },
  {
    "text": "Scattered electron.",
    "start": "354280",
    "end": "356740"
  },
  {
    "text": "So what this tells me is that\nthis energy now is going into",
    "start": "356740",
    "end": "363050"
  },
  {
    "text": "creating a photon and\nscattering an",
    "start": "363050",
    "end": "365340"
  },
  {
    "text": "electron from your atom.",
    "start": "365340",
    "end": "367510"
  },
  {
    "text": "So if I was to equate those two\nor what not I can already",
    "start": "367510",
    "end": "372180"
  },
  {
    "text": "say that, well in my final state\nI detect an emission or",
    "start": "372180",
    "end": "378360"
  },
  {
    "text": "an emission spectrum.",
    "start": "378360",
    "end": "379449"
  },
  {
    "text": "And I know what the\ntransition says.",
    "start": "379450",
    "end": "381670"
  },
  {
    "text": "It goes from n equals\n3 to n equals 2.",
    "start": "381670",
    "end": "383570"
  },
  {
    "text": "That's what the problem\ntells us.",
    "start": "383570",
    "end": "385100"
  },
  {
    "text": "So if I take my equation, my\ndelta e of my emission",
    "start": "385100",
    "end": "389680"
  },
  {
    "text": "spectrum, is simply going to be\nnegative k, which is 13.6",
    "start": "389680",
    "end": "395729"
  },
  {
    "text": "electron volts.",
    "start": "395730",
    "end": "396980"
  },
  {
    "start": "396980",
    "end": "401030"
  },
  {
    "text": "And I'm going to multiply\nby the atomic",
    "start": "401030",
    "end": "403400"
  },
  {
    "text": "number, squared now.",
    "start": "403400",
    "end": "404669"
  },
  {
    "text": "This is where people also make\nmistakes during the exam.",
    "start": "404670",
    "end": "407400"
  },
  {
    "text": "The atomic number is not 1.",
    "start": "407400",
    "end": "409770"
  },
  {
    "text": "It's actually 2 because we're\ntalking about helium.",
    "start": "409770",
    "end": "412000"
  },
  {
    "text": "And the atomic number is not\nthe number of electrons or",
    "start": "412000",
    "end": "418200"
  },
  {
    "text": "values in terms of an ion, but\nit's actually the number of",
    "start": "418200",
    "end": "422440"
  },
  {
    "text": "protons that you have. So\nhelium has 2 protons.",
    "start": "422440",
    "end": "425140"
  },
  {
    "text": "So I can multiply this by 2.",
    "start": "425140",
    "end": "427630"
  },
  {
    "text": "And I'm going to square it.",
    "start": "427630",
    "end": "430120"
  },
  {
    "text": "And I know that I'm going from\nn and equals 3 to n equals 2.",
    "start": "430120",
    "end": "436160"
  },
  {
    "text": "So if I plug this into my\nequation I have 1 over 3",
    "start": "436160",
    "end": "441600"
  },
  {
    "text": "squared minus 1 over 2 squared,\nwhich is 9 and 4.",
    "start": "441600",
    "end": "447300"
  },
  {
    "text": "And if you plug this in, and\nassuming that your calculator",
    "start": "447300",
    "end": "451530"
  },
  {
    "text": "works and is correct, you get a\nvalue of 7.56 electron volts",
    "start": "451530",
    "end": "457920"
  },
  {
    "text": "because that was the unit\nthat I was using.",
    "start": "457920",
    "end": "462230"
  },
  {
    "text": "Everything else is unitless,\nso my energy is now 7.56",
    "start": "462230",
    "end": "466270"
  },
  {
    "text": "electron volts for\nmy transition.",
    "start": "466270",
    "end": "468050"
  },
  {
    "text": "Which covers this part\nfor my photon.",
    "start": "468050",
    "end": "470800"
  },
  {
    "text": "So now we're left with what\nthe energy of this is.",
    "start": "470800",
    "end": "473900"
  },
  {
    "text": "So what is the energy of\nthe scattered electron?",
    "start": "473900",
    "end": "476919"
  },
  {
    "text": "Well if I equate the initial to\nthe final I know that the",
    "start": "476920",
    "end": "481730"
  },
  {
    "text": "final is a composition\nof the transition",
    "start": "481730",
    "end": "484950"
  },
  {
    "text": "in my scatter state.",
    "start": "484950",
    "end": "486120"
  },
  {
    "text": "So I know that e initial, which\nis 8.88 electron volts,",
    "start": "486120",
    "end": "496110"
  },
  {
    "text": "this equals to the energy for\nthe emission spectrum, which",
    "start": "496110",
    "end": "501370"
  },
  {
    "text": "is 7.56 electron volts.",
    "start": "501370",
    "end": "506610"
  },
  {
    "text": "So I'll put the units in square\nbrackets so you don't",
    "start": "506610",
    "end": "510270"
  },
  {
    "text": "get confused.",
    "start": "510270",
    "end": "511979"
  },
  {
    "text": "And then plus the energy of\nthe scattered electron.",
    "start": "511980",
    "end": "523849"
  },
  {
    "text": "So if I subtract the two,\nI get the energy of",
    "start": "523850",
    "end": "526120"
  },
  {
    "text": "my scattered electron.",
    "start": "526120",
    "end": "528290"
  },
  {
    "text": "And that pretty much gives\nme a value of--",
    "start": "528290",
    "end": "531870"
  },
  {
    "text": "after I subtract that--",
    "start": "531870",
    "end": "534080"
  },
  {
    "text": "e of scattered electron\nis equal to--",
    "start": "534080",
    "end": "541390"
  },
  {
    "text": "well the distance between these\ntwo is actually 1.32",
    "start": "541390",
    "end": "546090"
  },
  {
    "text": "electron volts.",
    "start": "546090",
    "end": "547340"
  },
  {
    "start": "547340",
    "end": "550060"
  },
  {
    "text": "But don't stop here because the\nproblem didn't ask you to",
    "start": "550060",
    "end": "552330"
  },
  {
    "text": "figure out the energy of\nthe scattered electron.",
    "start": "552330",
    "end": "554690"
  },
  {
    "text": "It actually told us to figure\nout what the DeBroglie",
    "start": "554690",
    "end": "556150"
  },
  {
    "text": "wavelength is of this\nscattered electron.",
    "start": "556150",
    "end": "559330"
  },
  {
    "text": "Now the fact that the electron\nis scattered, to me that means",
    "start": "559330",
    "end": "563870"
  },
  {
    "text": "that the only energy\nthat this particle",
    "start": "563870",
    "end": "566779"
  },
  {
    "text": "has is kinetic energy.",
    "start": "566780",
    "end": "568140"
  },
  {
    "text": "So it's a classical\nform of energy.",
    "start": "568140",
    "end": "571970"
  },
  {
    "text": "So I can go ahead and I can\nequate this to just 1/2 mass",
    "start": "571970",
    "end": "577175"
  },
  {
    "text": "of the electrons times my\nvelocity squared-- whatever",
    "start": "577176",
    "end": "580880"
  },
  {
    "text": "velocity it has.",
    "start": "580880",
    "end": "582010"
  },
  {
    "text": "Now I'd don't need to figure\nout what the velocity is.",
    "start": "582010",
    "end": "585160"
  },
  {
    "text": "This is just important to figure\nout what the DeBroglie",
    "start": "585160",
    "end": "587959"
  },
  {
    "text": "wavelength is.",
    "start": "587960",
    "end": "588750"
  },
  {
    "text": "So this is good.",
    "start": "588750",
    "end": "591840"
  },
  {
    "text": "Now if we look at what our\nDeBroglie wavelength is, we",
    "start": "591840",
    "end": "596050"
  },
  {
    "text": "know that lambda is\nequal to Planck's",
    "start": "596050",
    "end": "602459"
  },
  {
    "text": "Constant divided by p.",
    "start": "602460",
    "end": "606640"
  },
  {
    "text": "And Planck's Constant has a\nvalue of 6.6 times 10 to the",
    "start": "606640",
    "end": "615140"
  },
  {
    "text": "minus 34 with units\nof joules seconds.",
    "start": "615140",
    "end": "621450"
  },
  {
    "text": "So this is important too.",
    "start": "621450",
    "end": "622460"
  },
  {
    "text": "Always keep track of your units\nbecause dimensional",
    "start": "622460",
    "end": "624670"
  },
  {
    "text": "analysis will help you a lot\nwhen solving these problems. A",
    "start": "624670",
    "end": "627420"
  },
  {
    "text": "lot of the times you're given\nenergy values in electron",
    "start": "627420",
    "end": "630620"
  },
  {
    "text": "volts but your solution will\nhave a constant that doesn't",
    "start": "630620",
    "end": "635050"
  },
  {
    "text": "have an electron volt, that will\nhave a joule, so you're",
    "start": "635050",
    "end": "637500"
  },
  {
    "text": "forced to make that conversion\nor else your problem is going",
    "start": "637500",
    "end": "640520"
  },
  {
    "text": "to be wrong.",
    "start": "640520",
    "end": "642700"
  },
  {
    "text": "OK so with that in mind,\nwe know what h is.",
    "start": "642700",
    "end": "645820"
  },
  {
    "text": "But what about p?",
    "start": "645820",
    "end": "646800"
  },
  {
    "text": "Well p is momentum.",
    "start": "646800",
    "end": "647980"
  },
  {
    "text": "And classical momentum is just\nmass times your velocity.",
    "start": "647980",
    "end": "651519"
  },
  {
    "text": "So this is just mass times\nvelocity, but this is the mass",
    "start": "651520",
    "end": "657390"
  },
  {
    "text": "times our velocity.",
    "start": "657390",
    "end": "658940"
  },
  {
    "text": "We know what the mass\nof the election is.",
    "start": "658940",
    "end": "660260"
  },
  {
    "text": "That's given on our table\nof constants.",
    "start": "660260",
    "end": "662250"
  },
  {
    "text": "But the velocity, we don't know\nwhat it is but we can",
    "start": "662250",
    "end": "664970"
  },
  {
    "text": "grab it from our classical\nenergy.",
    "start": "664970",
    "end": "667850"
  },
  {
    "text": "So if I look at my energy--",
    "start": "667850",
    "end": "671250"
  },
  {
    "text": "from the side so I'm going\nto look at my energy--",
    "start": "671250",
    "end": "676200"
  },
  {
    "text": "I know that my energy--",
    "start": "676200",
    "end": "678450"
  },
  {
    "text": "I'm going to call this\nscat, for scattered--",
    "start": "678450",
    "end": "681984"
  },
  {
    "text": "the energy of my scattered\nelectron is simply 1/2 the",
    "start": "681984",
    "end": "687810"
  },
  {
    "text": "mass of the electron times\nour velocity squared.",
    "start": "687810",
    "end": "690980"
  },
  {
    "text": "Now if I multiply both sides by\n2m, I'm going to go ahead",
    "start": "690980",
    "end": "696880"
  },
  {
    "text": "and get us to the point where I\ncan get an equation that is",
    "start": "696880",
    "end": "701520"
  },
  {
    "text": "just my mass times v.",
    "start": "701520",
    "end": "702960"
  },
  {
    "text": "So I'm going to multiply both\nsides by 2m, So I get 2 mass",
    "start": "702960",
    "end": "707380"
  },
  {
    "text": "of the electron, e scat of\nthe electron, equals--",
    "start": "707380",
    "end": "715360"
  },
  {
    "text": "if I multiply this by\n2m, the two cancel,",
    "start": "715360",
    "end": "717125"
  },
  {
    "text": "so I get an m squared.",
    "start": "717125",
    "end": "718820"
  },
  {
    "text": "m squared times v squared\nis essentially",
    "start": "718820",
    "end": "720790"
  },
  {
    "text": "just m times v squared.",
    "start": "720790",
    "end": "723250"
  },
  {
    "text": "And this becomes just mass of\nyour electron v squared.",
    "start": "723250",
    "end": "728630"
  },
  {
    "text": "Now if I take the square root\nof both sides, I end up",
    "start": "728630",
    "end": "736580"
  },
  {
    "text": "getting a nice relation\nfor just m times v.",
    "start": "736580",
    "end": "738510"
  },
  {
    "text": "So I know that m times v now is\njust simply equal to this--",
    "start": "738510",
    "end": "744990"
  },
  {
    "text": "canceled, the square root\ncancels the square.",
    "start": "744990",
    "end": "747709"
  },
  {
    "text": "The square root of 2 mass of the\nelectron times the energy",
    "start": "747710",
    "end": "753050"
  },
  {
    "text": "of the scattered electron.",
    "start": "753050",
    "end": "756779"
  },
  {
    "text": "So if I go back to my DeBroglie",
    "start": "756780",
    "end": "758750"
  },
  {
    "text": "wavelength, I have m v.",
    "start": "758750",
    "end": "760550"
  },
  {
    "text": "So I can take that value as a\nfunction of energy and just",
    "start": "760550",
    "end": "763830"
  },
  {
    "text": "substitute it into\nmy equation.",
    "start": "763830",
    "end": "765820"
  },
  {
    "text": "And that'll help us get the\nanswer because we know what",
    "start": "765820",
    "end": "768410"
  },
  {
    "text": "the energy of the scattered\nelectron is.",
    "start": "768410",
    "end": "769899"
  },
  {
    "text": "We calculated that on\nthe first part.",
    "start": "769900",
    "end": "772770"
  },
  {
    "text": "So with that in mind we'll\ncome over here.",
    "start": "772770",
    "end": "776380"
  },
  {
    "text": "Again this is 6.6 times\n10 to the minus 34.",
    "start": "776380",
    "end": "781590"
  },
  {
    "text": "And the units are\njoules seconds.",
    "start": "781590",
    "end": "785760"
  },
  {
    "text": "And down here I have the square\nroot of 2 times my mass",
    "start": "785760",
    "end": "795800"
  },
  {
    "text": "of the electron, which is on\nyour table of constants.",
    "start": "795800",
    "end": "798480"
  },
  {
    "text": "And it's just 9.11 times\n10 to the minus 31.",
    "start": "798480",
    "end": "804620"
  },
  {
    "text": "And this has units of kilograms.\nAnd the energy of",
    "start": "804620",
    "end": "810070"
  },
  {
    "text": "my scattered electron, which\nis 1.3 times 1.32 and this",
    "start": "810070",
    "end": "818460"
  },
  {
    "text": "units of electron volts.",
    "start": "818460",
    "end": "821640"
  },
  {
    "text": "Now this has units of\nelectron volts.",
    "start": "821640",
    "end": "824610"
  },
  {
    "text": "This has units of joules.",
    "start": "824610",
    "end": "826402"
  },
  {
    "text": "This problem's a little bit--",
    "start": "826402",
    "end": "828009"
  },
  {
    "text": "now you're not going to get a\ngood answer with that unless",
    "start": "828010",
    "end": "830230"
  },
  {
    "text": "you make the conversion.",
    "start": "830230",
    "end": "832160"
  },
  {
    "text": "I pointed it out, the bullet\npoint in the beginning was",
    "start": "832160",
    "end": "834879"
  },
  {
    "text": "that 1 electron volt is equal\nto 1.6 times 10 to minus 19",
    "start": "834880",
    "end": "839540"
  },
  {
    "text": "joules, so if I simply\nmultiply this by that",
    "start": "839540",
    "end": "843300"
  },
  {
    "text": "conversion, just 1.6 times 10\nto the minus 19, this has",
    "start": "843300",
    "end": "851540"
  },
  {
    "text": "units now of joules\nper electron volt.",
    "start": "851540",
    "end": "858800"
  },
  {
    "text": "So this has units of joules\nper electron volt.",
    "start": "858800",
    "end": "863740"
  },
  {
    "text": "The equation turned out\nto be pretty long.",
    "start": "863740",
    "end": "865220"
  },
  {
    "text": "But this cancels the electron\nvolt and now",
    "start": "865220",
    "end": "867779"
  },
  {
    "text": "has units of joules.",
    "start": "867780",
    "end": "869320"
  },
  {
    "text": "Which if you go through the\nmath, you're going to go ahead",
    "start": "869320",
    "end": "872600"
  },
  {
    "text": "and at the end get a unit\nof just meters.",
    "start": "872600",
    "end": "874819"
  },
  {
    "text": "Because joule is just kilogram,\nmeters squared per",
    "start": "874820",
    "end": "877940"
  },
  {
    "text": "second squared.",
    "start": "877940",
    "end": "879380"
  },
  {
    "text": "So all that factors out and\nyou end up getting that.",
    "start": "879380",
    "end": "884260"
  },
  {
    "text": "If you go through the math and\nyou get your math right, then",
    "start": "884260",
    "end": "888780"
  },
  {
    "text": "this should yield a value\nof 1.06 times 10",
    "start": "888780",
    "end": "894610"
  },
  {
    "text": "to the minus 9 meters.",
    "start": "894610",
    "end": "899920"
  },
  {
    "text": "So this is the value that\nwill get you the right",
    "start": "899920",
    "end": "906550"
  },
  {
    "text": "answer on the exam.",
    "start": "906550",
    "end": "907660"
  },
  {
    "text": "Again this is lambda for your\nDeBroglie wavelength because",
    "start": "907660",
    "end": "910410"
  },
  {
    "text": "that's what the problem is.",
    "start": "910410",
    "end": "911740"
  },
  {
    "text": "So the problem asked for the\nDeBroglie wavelength but it",
    "start": "911740",
    "end": "915120"
  },
  {
    "text": "give you all this information to\nget to the point where you",
    "start": "915120",
    "end": "917800"
  },
  {
    "text": "needed to solve.",
    "start": "917800",
    "end": "918890"
  },
  {
    "text": "And by conserving energy and\nknowing the right conversion",
    "start": "918890",
    "end": "925050"
  },
  {
    "text": "factors between energies you're\nable to get an answer,",
    "start": "925050",
    "end": "927660"
  },
  {
    "text": "which is good.",
    "start": "927660",
    "end": "929740"
  },
  {
    "text": "It's really easy to complicate\nthings and get a",
    "start": "929740",
    "end": "934940"
  },
  {
    "text": "wrong problem now.",
    "start": "934940",
    "end": "936450"
  },
  {
    "text": "I remember from grading the\nexams, the most common error",
    "start": "936450",
    "end": "941280"
  },
  {
    "text": "that people faced was actually\nletting the energy of the",
    "start": "941280",
    "end": "945410"
  },
  {
    "text": "electron be the energy\nof a photon.",
    "start": "945410",
    "end": "947899"
  },
  {
    "text": "Now that can't be because the\nenergy of a photon is just",
    "start": "947900",
    "end": "952320"
  },
  {
    "text": "your Planck's Constant\ntimes a frequency.",
    "start": "952320",
    "end": "954950"
  },
  {
    "text": "And that's the energy for\nmassless particles, your",
    "start": "954950",
    "end": "959110"
  },
  {
    "text": "electron has mass so if\nit's moving it's not",
    "start": "959110",
    "end": "962390"
  },
  {
    "text": "going to be h nu.",
    "start": "962390",
    "end": "963410"
  },
  {
    "text": "The energy is going to\nbe kinetic energy.",
    "start": "963410",
    "end": "965480"
  },
  {
    "text": "1/2 mb squared.",
    "start": "965480",
    "end": "966370"
  },
  {
    "text": "If it's not in an electric\nfield, that is.",
    "start": "966370",
    "end": "969650"
  },
  {
    "text": "So with that in mind just be\nconfident when you solve these",
    "start": "969650",
    "end": "974160"
  },
  {
    "text": "problems and make sure that you\nknow exactly what energy",
    "start": "974160",
    "end": "978690"
  },
  {
    "text": "equations to use to get\nthe right answer.",
    "start": "978690",
    "end": "981820"
  },
  {
    "start": "981820",
    "end": "982583"
  }
]